<VTKFile type="PolyData" version="0.1" byte_order="LittleEndian">
  <PolyData>
    <Piece NumberOfPoints="4" NumberOfVerts="0" NumberOfLines="0" NumberOfStrips="0" NumberOfPolys="1">
      <PointData Normals="Normals" TCoords="TextureCoordinates">
        <DataArray type="Float32" Name="Normals" NumberOfComponents="3" format="ascii" RangeMin="1" RangeMax="1">
          0 0 1 0 0 1
          0 0 1 0 0 1
        </DataArray>
        <DataArray type="Float32" Name="TextureCoordinates" NumberOfComponents="2" format="ascii" RangeMin="0" RangeMax="1.4142135624">
          0 0 1 0 0 1
          1 1
        </DataArray>
      </PointData>
      <CellData>
      </CellData>
      <Points>
        <DataArray type="Float32" Name="Points" NumberOfComponents="3" format="ascii" RangeMin="17.564179457" RangeMax="20.554814521">
          -1.5 17.5 0.019999999553 1.5 17.5 0.019999999553
          -1.5 20.5 0.019999999553 1.5 20.5 0.019999999553
        </DataArray>
      </Points>
      <Verts>
        <DataArray type="Int64" Name="connectivity" format="ascii" RangeMin="1e+299" RangeMax="-1e+299">
        </DataArray>
        <DataArray type="Int64" Name="offsets" format="ascii" RangeMin="1e+299" RangeMax="-1e+299">
        </DataArray>
      </Verts>
      <Lines>
        <DataArray type="Int64" Name="connectivity" format="ascii" RangeMin="1e+299" RangeMax="-1e+299">
        </DataArray>
        <DataArray type="Int64" Name="offsets" format="ascii" RangeMin="1e+299" RangeMax="-1e+299">
        </DataArray>
      </Lines>
      <Strips>
        <DataArray type="Int64" Name="connectivity" format="ascii" RangeMin="1e+299" RangeMax="-1e+299">
        </DataArray>
        <DataArray type="Int64" Name="offsets" format="ascii" RangeMin="1e+299" RangeMax="-1e+299">
        </DataArray>
      </Strips>
      <Polys>
        <DataArray type="Int64" Name="connectivity" format="ascii" RangeMin="0" RangeMax="3">
          0 1 3 2
        </DataArray>
        <DataArray type="Int64" Name="offsets" format="ascii" RangeMin="4" RangeMax="4">
          4
        </DataArray>
      </Polys>
    </Piece>
  </PolyData>
</VTKFile>
